# vtk DataFile Version 3.0
vtk output
ASCII
DATASET POLYDATA
POINTS 4350 float
0 0 -1
-0.0066896 -0.0049843 0.036137
0.01032 -0.0028908 0.025981
-0.0026591 0.0050723 0.021469
0.00052193 0.0013541 0.003605
-0.061257 -0.051996 0.09637
-0.061013 -0.032083 0.093605
-0.016302 -0.0084338 0.081711
0.026079 -0.008574 0.073406
0.056527 -0.0077089 0.09078
-0.051155 0.010738 0.095087
-0.013201 0.0044775 0.078574
0.013123 0.025738 0.079219
0.058066 0.001176 0.081796
0.011216 0.052013 0.097852
-0.10531 -0.066611 0.14509
-0.07674 -0.067455 0.14296
-0.029939 -0.071442 0.14774
0.0057126 -0.064928 0.14859
0.11116 -0.067474 0.14858
-0.10462 -0.035789 0.14351
-0.082194 -0.031628 0.13855
-0.023585 -0.015342 0.13052
0.031505 -0.015909 0.12852
0.073339 -0.013905 0.12915
0.10928 -0.028801 0.14899
-0.050567 0.0041917 0.11751
-0.021646 0.0030361 0.13253
0.025082 0.027472 0.13008
0.0803 0.0015313 0.11337
0.017592 0.057932 0.12729
-0.12235 -0.10222 0.19084
-0.11317 -0.066582 0.16132
-0.072313 -0.063264 0.1566
-0.025303 -0.064977 0.15762
0.024922 -0.066529 0.15896
0.075737 -0.068918 0.16335
0.109 -0.06885 0.15812
-0.15066 -0.033225 0.1999
-0.11765 -0.040547 0.17756
-0.075527 -0.040981 0.17415
-0.025167 -0.038896 0.17329
0.026506 -0.040449 0.16905
0.07622 -0.036504 0.16807
0.11121 -0.032598 0.16346
-0.070053 0.020245 0.16812
-0.025036 0.003999 0.17213
0.035379 0.025618 0.16577
0.12338 0.0050694 0.17268
0.026501 0.062435 0.16808
0.07356 0.079773 0.16142
0.11637 0.094874 0.18107
-0.15973 -0.12027 0.22717
-0.13761 -0.10642 0.20319
-0.14218 -0.074312 0.2038
-0.027586 -0.051289 0.23352
-0.16154 -0.038515 0.22612
-0.12094 -0.0355 0.21979
-0.072459 -0.033795 0.22037
-0.03202 -0.029841 0.2194
0.042471 -0.03121 0.22168
0.065323 -0.027989 0.22198
0.1358 -0.016755 0.21074
0.16115 -0.021767 0.23074
-0.10345 0.014532 0.21605
-0.078527 0.0049029 0.22167
-0.031447 0.0054719 0.22209
0.042644 0.034167 0.21563
0.062375 0.0019919 0.22679
0.14841 0.0066859 0.20768
0.17113 0.0084217 0.23719
0.039027 0.069766 0.21712
-0.1831 -0.12637 0.25392
-0.067142 -0.052965 0.28507
-0.026444 -0.053991 0.2777
-0.20457 -0.045066 0.28604
-0.16685 -0.042352 0.2715
-0.12194 -0.036696 0.26972
-0.073091 -0.034094 0.27004
-0.034172 -0.027881 0.26848
0.046051 -0.032123 0.26905
0.055933 -0.035154 0.26942
0.18391 -0.023444 0.26703
0.20811 -0.023101 0.28839
-0.071244 0.0052371 0.29899
-0.032869 0.0026523 0.2752
0.038536 0.014786 0.26107
0.0548 0.037971 0.27413
0.19254 0.010083 0.26658
0.20763 0.012034 0.28682
0.049415 0.076391 0.2658
0.054681 0.074035 0.27945
0.16783 0.12136 0.26822
-0.21209 -0.052177 0.31156
-0.17971 -0.053808 0.33534
-0.12222 -0.05102 0.31837
-0.087526 -0.051535 0.3118
-0.020447 -0.059687 0.32295
0.063003 -0.052919 0.32383
-0.17269 -0.044319 0.32417
-0.12219 -0.03814 0.31567
-0.073022 -0.031572 0.31491
-0.032989 -0.027911 0.31364
0.067144 -0.033489 0.32317
0.23085 -0.026586 0.32728
0.25318 -0.027958 0.34614
-0.061126 0.0078191 0.32493
0.23113 0.013473 0.31623
0.25285 0.017541 0.34685
0.059858 0.076853 0.30042
0.053732 0.11316 0.31851
0.2583 0.14649 0.34253
0.19753 0.1847 0.33231
0.2385 0.17962 0.33825
0.25644 0.18889 0.347
-0.20874 -0.057409 0.37936
-0.19441 -0.055216 0.3652
-0.022093 -0.064742 0.37951
0.071912 -0.06004 0.37991
-0.20994 -0.039776 0.38624
-0.17569 -0.042759 0.3594
-0.075376 -0.034005 0.35286
-0.027314 -0.040237 0.36658
0.08388 -0.046254 0.37262
0.24767 -0.026853 0.35461
0.2713 -0.021716 0.37479
0.077816 0.044487 0.37629
0.2785 0.014337 0.3791
0.23864 0.18674 0.37554
0.27239 0.18469 0.38151
0.30047 0.1767 0.39559
0.23362 0.21045 0.38664
0.27421 0.2078 0.3871
0.30292 0.21421 0.39827
-0.23316 -0.061485 0.4342
-0.02468 -0.074382 0.41842
0.082797 -0.06271 0.41988
-0.22184 -0.032221 0.42035
-0.058906 -0.025101 0.4116
0.083336 -0.036122 0.4064
0.29383 -0.012989 0.40423
0.3122 -0.011146 0.42024
0.29669 0.014215 0.40421
0.31849 0.011533 0.42983
0.24901 0.19403 0.40377
0.28031 0.18972 0.41257
0.31214 0.19109 0.42638
0.24214 0.22257 0.41624
0.2775 0.21988 0.42442
0.31311 0.21531 0.42869
-0.26097 -0.062397 0.49393
-0.24217 -0.067593 0.45599
-0.028982 -0.076236 0.47505
0.085038 -0.070594 0.47429
0.10344 -0.064903 0.4727
-0.31516 -0.030264 0.47253
-0.25502 -0.03429 0.49011
-0.23581 -0.022673 0.4613
-0.071835 -0.047331 0.47172
-0.032547 -0.041701 0.48614
0.096875 -0.039839 0.47953
0.10394 -0.031638 0.48213
0.33696 -0.0041809 0.4539
-0.24128 0.018762 0.48373
-0.028795 0.019417 0.49686
0.34109 0.016741 0.45881
0.35409 0.031652 0.47363
-0.23002 0.073671 0.47619
0.29959 0.19943 0.45395
0.32482 0.19739 0.45581
0.28462 0.23262 0.46264
0.32226 0.21225 0.46534
0.36553 0.22168 0.48103
0.24405 0.25362 0.45995
0.27771 0.25782 0.47488
0.31406 0.25492 0.45642
-0.031585 -0.10548 0.50252
-0.27927 -0.066657 0.52659
-0.17492 -0.077236 0.5126
-0.033319 -0.075165 0.52685
0.095441 -0.079988 0.52171
0.1116 -0.07534 0.52064
-0.27451 -0.031816 0.52877
-0.032648 -0.029382 0.52266
0.1026 -0.033704 0.51382
-0.26625 0.020947 0.53077
-0.066475 0.03606 0.52428
-0.037769 0.011708 0.52876
0.38186 0.032956 0.51078
-0.25841 0.080072 0.53175
-0.24718 0.073831 0.51263
-0.18713 0.080342 0.54086
-0.1365 0.060641 0.53061
-0.23655 0.10037 0.50743
0.33056 0.24484 0.53015
0.36987 0.21054 0.50397
-0.36023 0.28368 0.53567
0.2845 0.27376 0.50653
0.32198 0.26254 0.52125
0.29565 0.30312 0.54702
-0.30366 -0.065875 0.57225
-0.29548 -0.05983 0.56042
-0.035227 -0.076576 0.57884
0.096097 -0.077173 0.56323
0.12171 -0.074713 0.58421
-0.30583 -0.026142 0.59297
-0.29057 -0.022717 0.56417
-0.036066 -0.030413 0.57452
0.11142 -0.032462 0.57166
-0.30378 0.0080696 0.59822
-0.2858 0.024621 0.56967
-0.074629 0.039474 0.5757
-0.038467 0.022978 0.58929
-0.28415 0.070928 0.58224
-0.20867 0.093608 0.5814
-0.16887 0.080649 0.58568
-0.1324 0.067008 0.5798
-0.27111 0.11286 0.57464
-0.22736 0.10297 0.58135
0.32212 0.28059 0.55243
-0.038734 -0.066975 0.61972
0.12773 -0.082637 0.61851
-0.31216 -0.012464 0.61172
-0.037683 -0.026607 0.6185
-0.31045 0.019078 0.61725
-0.1022 0.048429 0.61669
-0.076817 0.041997 0.62315
-0.040998 0.017455 0.62002
-0.30915 0.072743 0.63209
-0.29527 0.082037 0.60824
-0.2099 0.093626 0.62522
-0.17363 0.080662 0.6336
-0.12431 0.062228 0.62581
-0.092028 0.052102 0.62909
-0.30501 0.11426 0.63495
-0.27717 0.12191 0.62721
-0.23707 0.10967 0.62935
-0.35945 0.2174 0.61649
-0.42478 0.2798 0.64378
-0.43431 0.32127 0.6265
0.1343 -0.10527 0.68632
-0.041164 -0.078637 0.65776
0.12942 -0.087729 0.67869
-0.03874 -0.017454 0.66855
-0.32573 0.047002 0.65365
-0.093577 0.048421 0.65367
-0.0397 0.0093283 0.66463
-0.32212 0.092631 0.66483
-0.20842 0.096431 0.68075
-0.17556 0.083748 0.67908
-0.12579 0.063227 0.67303
-0.093336 0.054546 0.69566
-0.30698 0.13413 0.67426
-0.27611 0.12337 0.67578
-0.22916 0.10736 0.68096
-0.3169 0.16756 0.65068
-0.43242 0.28959 0.69248
-0.38566 0.29558 0.66951
-0.29301 0.29154 0.67475
-0.46666 0.32342 0.68169
-0.43511 0.3177 0.66919
-0.39212 0.31817 0.67399
-0.48716 0.35524 0.6931
-0.047059 -0.1506 0.74915
-0.044694 -0.14614 0.71129
0.13983 -0.10469 0.71996
0.15153 -0.10909 0.7318
0.12335 -0.093573 0.71383
0.15362 -0.089196 0.71565
0.13524 -0.041433 0.7286
0.15318 -0.034919 0.72609
-0.091681 0.049271 0.70723
-0.045078 0.01967 0.72229
-0.21141 0.0972 0.71495
-0.17907 0.086662 0.72301
-0.12799 0.064941 0.72457
-0.31575 0.14445 0.719
-0.27532 0.12467 0.71875
-0.2272 0.1061 0.72608
-0.35427 0.18426 0.74261
-0.33292 0.15496 0.72401
-0.46244 0.29463 0.73511
-0.42917 0.26557 0.71726
-0.50933 0.34759 0.74021
-0.47562 0.33046 0.72991
-0.443 0.32908 0.72621
-0.39599 0.33999 0.73685
-0.34775 0.33194 0.74203
-0.51971 0.36597 0.73581
-0.47347 0.36705 0.72028
-0.44032 0.37666 0.72017
-0.52732 0.40062 0.73504
-0.04933 -0.15101 0.78573
-0.050101 -0.11851 0.79995
-0.048737 -0.14054 0.77679
0.14281 -0.10922 0.77995
0.16191 -0.10737 0.78567
-0.049479 -0.061962 0.79209
0.13517 -0.081232 0.76745
-0.04877 -0.035049 0.78128
-0.047181 0.014679 0.77448
-0.21769 0.099174 0.77651
-0.16875 0.088307 0.77973
-0.1314 0.07049 0.76863
-0.314 0.14952 0.75996
-0.2897 0.13688 0.76841
-0.24541 0.12037 0.76627
0.14173 0.11832 0.75015
-0.35544 0.16872 0.78247
-0.32559 0.15591 0.79259
-0.41688 0.2401 0.77572
-0.46173 0.29116 0.7811
-0.43632 0.28434 0.78188
-0.50758 0.33525 0.78316
-0.47577 0.3285 0.77411
-0.43423 0.32401 0.77487
-0.51803 0.37042 0.77707
-0.47163 0.36323 0.77698
-0.42854 0.37147 0.788
-0.38838 0.37469 0.78652
-0.49071 0.40962 0.77601
-0.051513 -0.12541 0.82228
0.16664 -0.11114 0.82554
-0.05163 -0.074832 0.8262
0.14341 -0.088997 0.83035
0.1732 -0.096913 0.81947
-0.051672 -0.021556 0.82792
-0.05084 0.0089042 0.81471
-0.16208 0.089203 0.82754
-0.27194 0.13426 0.81928
-0.22586 0.11546 0.82816
-0.34679 0.16529 0.80171
-0.41925 0.23752 0.83206
-0.46477 0.28579 0.8251
-0.43609 0.2788 0.82742
-0.38228 0.29124 0.8124
-0.50874 0.33181 0.82461
-0.47673 0.32574 0.82482
-0.43186 0.32305 0.82749
-0.37968 0.3279 0.8247
-0.51952 0.36787 0.83018
-0.47453 0.3726 0.82445
-0.43413 0.37579 0.82888
-0.37997 0.37009 0.81897
-0.56098 0.42847 0.84753
-0.52157 0.40377 0.82755
-0.47149 0.41226 0.83625
-0.42896 0.41396 0.83848
-0.053239 -0.10371 0.85105
0.16199 -0.11271 0.87475
-0.054072 -0.074985 0.86538
0.17104 -0.087985 0.87906
-0.054045 -0.022622 0.86597
0.18141 -0.03457 0.87896
-0.054162 0.021769 0.86786
-0.15913 0.09073 0.86497
-0.13637 0.079693 0.86993
-0.27253 0.13757 0.87699
-0.22654 0.11755 0.87634
-0.15224 0.10146 0.89324
-0.40511 0.19632 0.88173
-0.38201 0.18604 0.8896
-0.34865 0.16788 0.8537
-0.42526 0.23422 0.88428
-0.39864 0.24316 0.86944
-0.46551 0.28084 0.88149
-0.42923 0.27507 0.87445
-0.39494 0.29251 0.8866
-0.50948 0.3305 0.87091
-0.4736 0.32432 0.87512
-0.42971 0.32526 0.87469
-0.38199 0.32619 0.87421
-0.34988 0.32097 0.87809
-0.55026 0.37231 0.88789
-0.51793 0.37342 0.87297
-0.4719 0.37174 0.87603
-0.43536 0.37182 0.87507
-0.38166 0.35591 0.87333
-0.55126 0.41302 0.89473
-0.52214 0.41499 0.8824
-0.46988 0.41447 0.87977
-0.43266 0.41641 0.88051
0.17846 -0.12066 0.92072
0.16597 -0.082165 0.91043
0.19051 -0.037485 0.92281
[...]
POINT_DATA 4350
COLOR_SCALARS scalars 3
0 0 0
0.38431 0.39216 0.36078
0.0078431 0.0078431 0.0078431
0.082353 0.082353 0.078431
0 0 0
0 0 0
0.31765 0.37647 0.44314
0.69412 0.71765 0.65098
0.26275 0.27451 0.25098
0 0 0
0.4 0.43529 0.55686
0.78431 0.79608 0.69804
0.28235 0.29412 0.26667
0 0 0
0 0 0
0.015686 0.011765 0.015686
0.0078431 0.0078431 0.0078431
0.0039216 0.0039216 0.0039216
0.019608 0.015686 0.019608
0 0 0
0.33333 0.3451 0.43529
0.41569 0.41961 0.49412
0.66275 0.6902 0.66275
0.57647 0.59216 0.53725
0.1098 0.11373 0.10588
0 0 0
0.29804 0.32549 0.50588
0.86275 0.88627 0.79216
0.67451 0.6902 0.63137
0 0 0
0.027451 0.027451 0.027451
0 0 0
0.10588 0.090196 0.094118
0.14118 0.11765 0.11373
0.1098 0.090196 0.090196
0.098039 0.082353 0.082353
0.070588 0.066667 0.066667
0 0 0
0 0 0
0.37647 0.35294 0.4
0.50588 0.47059 0.4902
0.53725 0.51765 0.49412
0.48627 0.46275 0.41569
0.3451 0.33333 0.31765
0.0039216 0.0039216 0.0039216
0.33725 0.35686 0.38039
0.83922 0.86667 0.80784
0.81176 0.82745 0.75294
0 0 0
0.37255 0.37647 0.3451
0 0 0
0 0 0
0 0 0
0 0 0
0.15686 0.1451 0.1451
0.58431 0.58431 0.53333
0.21961 0.28627 0.43137
0.5098 0.58431 0.67059
0.51765 0.60784 0.76863
0.57647 0.60392 0.63137
0.68627 0.69804 0.61569
0.61569 0.63137 0.56863
0.043137 0.047059 0.043137
0 0 0
0.69412 0.84314 1
0.29804 0.30588 0.46667
0.72157 0.7451 0.71765
0.84314 0.85882 0.76471
0.72941 0.7451 0.67843
0 0 0
0 0 0
0.60392 0.61176 0.55686
0 0 0
0.6 0.72549 0.95686
0.62745 0.65098 0.62745
0.20784 0.28627 0.45098
0.23922 0.28235 0.43922
0.60392 0.71373 0.83137
0.46275 0.5451 0.73333
0.56078 0.59216 0.63137
0.70196 0.72549 0.63137
0.69804 0.71373 0.62745
0.0039216 0.0039216 0.0039216
0 0 0
0.19216 0.25882 0.47843
0.72941 0.77255 0.8
0.67059 0.68627 0.61961
0.85098 0.87059 0.77255
0 0 0
0 0 0
0.93725 0.95294 0.87059
0.91765 0.92941 0.84314
0 0 0
0.27451 0.36078 0.56471
0.29412 0.31765 0.48235
0.7098 0.82745 1
0.34118 0.40392 0.65098
0.72941 0.7451 0.64314
0.65882 0.67451 0.60392
0.3098 0.34902 0.5098
0.55294 0.64314 0.76863
0.43529 0.52157 0.71765
0.57647 0.59216 0.60392
0.70196 0.71765 0.63137
0 0 0
0 0 0
0.45098 0.51765 0.66275
0 0 0
0 0 0
0.90196 0.91765 0.82745
1 1 0.97255
0 0 0
0 0 0
0 0 0
0 0 0
0.21961 0.22353 0.3451
0.23922 0.25882 0.43137
0.7451 0.75686 0.65882
0.64706 0.66275 0.59608
0.37647 0.38431 0.46667
0.49804 0.58039 0.72549
0.47059 0.55294 0.72549
0.68627 0.70196 0.64706
0.7098 0.72157 0.64706
0 0 0
0 0 0
0.85882 0.87843 0.76078
0 0 0
0 0 0
0 0 0
0 0 0
0 0 0
0 0 0
0 0 0
0.24706 0.2549 0.40784
0.73725 0.74902 0.66275
0.65098 0.67451 0.59608
0.27843 0.2902 0.46667
0.26275 0.30196 0.5451
0.73333 0.74902 0.67451
0 0 0
0 0 0
0 0 0
0 0 0
0 0 0
0 0 0
0 0 0
0 0 0
0 0 0
0 0 0
0.30588 0.32157 0.44314
0.25098 0.26275 0.42745
0.74902 0.76078 0.66667
0.62353 0.64314 0.58039
0.70196 0.71765 0.62745
0.28235 0.37255 0.5451
0.36471 0.38431 0.48627
0.27843 0.30196 0.45882
0.70196 0.83529 1
0.81176 0.82745 0.71765
0.72549 0.73725 0.7098
0.75294 0.76863 0.67059
0 0 0
0.36078 0.37647 0.48627
1 1 0.87843
0 0 0
0 0 0
0.54118 0.57255 0.67059
0 0 0
0 0 0
0 0 0
0 0 0
0 0 0
0 0 0
0 0 0
0 0 0
0.71765 0.72549 0.63137
0.43529 0.45098 0.46667
0.26275 0.30588 0.54902
0.76471 0.77647 0.68235
0.63137 0.65098 0.58431
0.6902 0.71373 0.61569
0.44314 0.4549 0.49804
0.84314 0.85882 0.75294
0.62745 0.6549 0.60392
0.44314 0.4549 0.49804
0.87451 0.8902 0.78431
0.93725 0.95294 0.82745
0 0 0
0.66275 0.67843 0.72549
0.45098 0.45882 0.53725
0.72941 0.73725 0.72157
0.74902 0.77255 0.73725
0.75686 0.76471 0.75294
0 0 0
0 0 0
0 0 0
0 0 0
0 0 0
0 0 0
0.34902 0.35294 0.36471
0.54118 0.55686 0.55686
0.77647 0.78824 0.68627
0.63922 0.65882 0.58431
0.68235 0.69804 0.61176
0.49804 0.5098 0.51765
0.50196 0.51765 0.52941
0.84706 0.85882 0.75686
0.67059 0.68627 0.61176
0.65098 0.64706 0.67843
0.55686 0.57255 0.58431
0.87451 0.88627 0.78039
0.95294 0.96471 0.83922
0.61961 0.63529 0.67059
0.83922 0.84706 0.8
0.81569 0.82353 0.79216
0.78824 0.80392 0.75294
0.7451 0.75686 0.73333
0.83137 0.83529 0.79608
0 0 0
0.70196 0.71765 0.63137
0.66275 0.68235 0.60784
0.6 0.61569 0.62745
0.82353 0.83529 0.74118
0.55294 0.56471 0.56863
0.85098 0.86275 0.78824
0.88627 0.89804 0.8
0.91373 0.92941 0.81961
0.71765 0.72941 0.72157
0.71765 0.72549 0.7098
0.78039 0.78824 0.74902
0.76078 0.77647 0.74902
0.73333 0.74118 0.70196
0.89804 0.90588 0.80392
0.29412 0.30196 0.2902
0.78039 0.78824 0.76078
0.89412 0.90196 0.84706
0.81569 0.83137 0.77255
0 0 0
0 0 0
0.62745 0.64706 0.58824
0.61569 0.63529 0.56863
0.63922 0.6549 0.58824
0.87451 0.88627 0.78824
0.11765 0.11765 0.14902
0.88627 0.90196 0.75686
0.83922 0.8549 0.74902
0.65882 0.6549 0.67451
0.75686 0.76863 0.72941
0.77647 0.79608 0.76471
0.78039 0.79608 0.74118
0.8902 0.9098 0.79216
0.77647 0.78431 0.76471
0.77647 0.78431 0.76078
0.89804 0.90588 0.84314
0.81961 0.82745 0.77647
0 0 0
0 0 0
0 0 0
0 0 0
0 0 0
0 0 0
0 0 0
0.45882 0.47843 0.4549
0.43137 0.44314 0.41569
0.62353 0.64706 0.58431
0.61569 0.62745 0.58431
0.64706 0.6549 0.60392
0.60784 0.62745 0.56863
0.68235 0.69804 0.63922
0.65098 0.66667 0.60784
0.88235 0.89412 0.78039
0.80392 0.81961 0.7098
0.73725 0.75294 0.72549
0.75686 0.77255 0.74902
0.80784 0.82353 0.76863
0.8 0.81176 0.77255
0.78039 0.78824 0.75686
0.80392 0.81569 0.77647
0.80784 0.81569 0.76471
0.70588 0.7098 0.67451
0 0 0
0 0 0
0 0 0
0 0 0
0 0 0
0 0 0
0 0 0
0 0 0
0 0 0
0 0 0
0 0 0
0.47451 0.4902 0.48627
0.4902 0.49804 0.48627
0.47451 0.48627 0.47059
0.63922 0.6549 0.58824
0.61961 0.63529 0.58039
0.52157 0.52157 0.51373
0.66275 0.68627 0.60784
0.46667 0.4902 0.45098
0.65882 0.67451 0.61176
0.6902 0.69804 0.67843
0.78039 0.79216 0.76078
0.64706 0.65882 0.60784
0.82745 0.83137 0.8
0.83922 0.85098 0.8
0.97255 0.98824 0.88235
0.79216 0.81961 0.75686
0.82745 0.83137 0.78824
0.8 0.80784 0.76863
0.8 0.80784 0.78824
0 0 0
0.36471 0.37255 0.35294
0 0 0
0 0 0
0 0 0
0 0 0
0 0 0
0 0 0
0 0 0
0 0 0
0.48235 0.48627 0.48235
0.63529 0.6549 0.59216
0.50196 0.51765 0.4902
0.65882 0.68627 0.60784
0.62745 0.64314 0.58431
0.52549 0.54118 0.52157
0.56078 0.57647 0.5451
0.57647 0.58431 0.56471
0.95686 0.96078 0.8902
0.73333 0.74902 0.70196
0.82353 0.83137 0.78039
0.81569 0.82353 0.78039
0.6549 0.66667 0.63137
0.75294 0.76078 0.72549
0 0 0
0 0 0
0 0 0
0 0 0
0 0 0
0 0 0
0 0 0
0 0 0
0 0 0
0 0 0
0 0 0
0 0 0
0 0 0
0.50588 0.52941 0.4902
0.64314 0.66667 0.58431
0.49804 0.51765 0.48627
0.65882 0.67451 0.61176
0.52157 0.53725 0.50588
0.68235 0.71373 0.63137
0.57255 0.59608 0.56471
0.49804 0.51373 0.5098
0.86667 0.88627 0.80784
0.87843 0.88627 0.82353
0.77647 0.78824 0.76471
0.82353 0.83922 0.78431
0.8 0.80784 0.76471
0.82353 0.83137 0.79608
0.81569 0.82353 0.78039
0.79216 0.8 0.75686
0.87451 0.88627 0.81961
0.83137 0.83922 0.8
0.87059 0.87843 0.84314
0.96471 0.97647 0.94118
0 0 0
0.21569 0.21961 0.20784
0.27059 0.27451 0.25882
0 0 0
0 0 0
0 0 0
0 0 0
0 0 0
0 0 0
0 0 0
0 0 0
0 0 0
0 0 0
0 0 0
0.64706 0.66667 0.59216
0.67451 0.69412 0.61569
0.6902 0.70588 0.65098
0.6549 0.67059 0.6
0.7451 0.76078 0.66275
0.6549 0.67059 0.62745
0.8 0.81569 0.78039
0.81569 0.83922 0.79216
0.80784 0.81569 0.77255
0.83922 0.84314 0.81176
0.9098 0.92157 0.84706
0.87843 0.88627 0.84314
0.80392 0.80784 0.78431
0.77255 0.78039 0.73725
0.87059 0.88235 0.82745
0.83529 0.84706 0.80784
0.87451 0.88235 0.83529
0.95294 0.96078 0.91765
1 1 0.93725
0.55294 0.56078 0.53333
0.50588 0.5098 0.4902
0.60392 0.61176 0.57647
0.83137 0.83137 0.82745
0 0 0
0 0 0
0 0 0
0 0 0
0 0 0
0 0 0
0 0 0
0 0 0
0 0 0
0.65098 0.67451 0.6
0.67451 0.68235 0.62745
0.67843 0.69412 0.61569
0.66275 0.69412 0.60392
0.70588 0.73333 0.64314
0.6549 0.67059 0.60392
0.53725 0.56078 0.51373
0.44706 0.4549 0.43529
0.90196 0.92157 0.83137
0.78039 0.79216 0.76471
0.81569 0.83137 0.79216
0.80392 0.81569 0.76863
0.83137 0.83922 0.79608
0.83922 0.85098 0.79608
0.94902 0.95294 0.88627
0.82745 0.83529 0.8
1 1 0.94118
1 1 0.95686
0.49412 0.49804 0.48235
0.84314 0.85098 0.80784
0.86667 0.87451 0.81961
0.98824 0.99608 0.93725
1 1 0.99216
0.83529 0.84314 0.80784
0.8902 0.90196 0.8549
0.95294 0.96078 0.9098
1 1 0.98039
0.85882 0.86275 0.83922
0.8 0.81176 0.76863
0.89804 0.9098 0.86275
0.90588 0.90588 0.88235
0 0 0
0.07451 0.07451 0.070588
0 0 0
0 0 0
0 0 0
0 0 0
0 0 0
0 0 0
0.62353 0.63922 0.58039
0.6549 0.67843 0.59608
0.66275 0.67843 0.61569
0.67843 0.70196 0.63137
0.67059 0.69412 0.62353
0.67059 0.69412 0.62353
0.72157 0.73333 0.65098
0.66275 0.67843 0.61176
0.76078 0.77647 0.67843
0.68235 0.7098 0.63922
0.82353 0.83529 0.8
0.82353 0.83529 0.8
0.79216 0.80392 0.75686
0.8902 0.89804 0.83529
0.98431 0.98824 0.91765
0.85098 0.85882 0.81961
0.83922 0.84706 0.78824
0.8902 0.87843 0.80392
0.81569 0.81961 0.80392
0.82745 0.83529 0.79216
0.90196 0.9098 0.85098
0.99216 0.99608 0.92941
0.8549 0.86275 0.81569
0.90196 0.9098 0.85882
0.93725 0.9451 0.8902
1 1 0.98039
0.92157 0.93725 0.88627
0.96863 0.97647 0.92941
0.97255 0.97647 0.94118
1 1 1
0 0 0
0.12941 0.13333 0.12549
0.21961 0.21961 0.21961
0.61961 0.61961 0.60784
0 0 0
0 0 0
0 0 0
0 0 0
0 0 0
0.66275 0.67843 0.58824
0.66275 0.68235 0.60392
0.68235 0.70196 0.61569
0.67451 0.69412 0.61961
0.67843 0.70196 0.62745
0.66667 0.6902 0.62353
0.70196 0.71765 0.65098
0.83922 0.8549 0.81569
0.80784 0.82353 0.76863
0.9451 0.95294 0.86667
0.98431 0.98824 0.90196
0.81569 0.81176 0.78039
0.80392 0.79216 0.74118
0.82745 0.82745 0.76078
0.85882 0.86667 0.81569
0.94118 0.95294 0.88627
0.99216 0.99608 0.93333
0.8902 0.89804 0.85098
0.86667 0.87843 0.83137
0.97647 0.98431 0.92549
1 1 0.98039
0.94902 0.96471 0.92549
0.9451 0.95294 0.90196
0.98431 0.98824 0.96078
0 0 0
0.8902 0.8902 0.86667
0.7098 0.7098 0.70196
0 0 0
0 0 0
0 0 0
0 0 0
0 0 0
0 0 0
0.66667 0.67843 0.60392
0.66275 0.67843 0.60392
0.68627 0.70588 0.61961
0.67451 0.69412 0.61569
0.70588 0.72157 0.63137
0.70588 0.72941 0.64706
0.72157 0.74118 0.65882
0.77647 0.78431 0.69804
0.74118 0.76863 0.66667
0.75686 0.76863 0.68627
0.77255 0.81176 0.71373
0.97647 0.98824 0.90196
0.98431 0.99216 0.90196
0.49804 0.47451 0.4902
1 1 0.95686
0.89412 0.87843 0.81176
0.90196 0.9098 0.84706
0.97647 0.98431 0.91765
0.99608 1 0.92941
0.83922 0.84314 0.82353
0.88235 0.89412 0.86667
0.96078 0.97255 0.90588
0.99216 0.99608 0.94118
1 1 0.97255
0.96863 0.97647 0.92549
0.99608 0.99608 0.98431
1 1 0.98039
0.95686 0.95686 0.92941
1 1 0.99216
0.070588 0.070588 0.066667
0 0 0
0 0 0
0 0 0
0.68235 0.69804 0.63137
0.68627 0.7098 0.63137
0.69804 0.72549 0.63922
0.67451 0.70196 0.63137
0.71765 0.73725 0.6549
0.69412 0.71765 0.63529
0.74902 0.76863 0.68627
0.76863 0.79216 0.71765
0.98824 1 0.90588
0.98431 0.99216 0.93725
0.78039 0.80784 0.73725
0.96078 0.98039 0.90196
0.98824 0.99216 0.92157
1 1 0.9451
1 1 0.95686
0.96078 0.96471 0.89412
1 1 0.94902
1 1 0.97255
1 1 0.96471
1 1 0.98431
0.99216 0.99608 0.96471
0.98039 0.98039 0.95686
1 1 1
0 0 0
0 0 0
0 0 0
0 0 0
0 0 0
0.6902 0.71373 0.63137
0.7098 0.73333 0.65098
0.72157 0.73725 0.67059
0.73333 0.74902 0.66275
0.7098 0.73725 0.66275
0.75686 0.77647 0.68627
0.75294 0.78431 0.68627
0.77255 0.79608 0.72157
0.76863 0.8 0.71765
0.78039 0.8 0.72549
0.99216 1 0.9098
1 1 0.95686
1 1 0.92157
1 1 0.95294
1 1 0.96471
1 1 0.98039
1 1 0.98039
1 1 1
0.90196 0.92941 0.86667
1 1 1
1 1 1
1 1 1
0 0 0
0 0 0
0 0 0
0.70196 0.73725 0.66275
0.73725 0.74902 0.65882
0.72157 0.7451 0.6549
0.76863 0.78431 0.68235
0.75294 0.77647 0.69412
0.78431 0.8 0.7098
0.76863 0.78824 0.72549
0.80392 0.81961 0.72549
0.99608 1 0.92157
1 1 0.96078
1 1 0.92941
0.99608 1 0.95686
1 1 0.96863
1 1 0.9451
1 1 0.98824
1 1 0.98431
1 1 1
1 1 0.99608
1 1 1
0 0 0
0 0 0
0.66275 0.6902 0.62745
0.70196 0.72941 0.63922
0.77255 0.79216 0.67843
0.74902 0.76471 0.67451
0.79608 0.81569 0.71373
0.76863 0.78824 0.71765
0.82745 0.84314 0.73725
0.78431 0.80392 0.73333
1 1 0.95686
0.86275 0.87843 0.74902
1 1 0.96471
1 1 1
1 1 0.97647
1 1 1
1 1 1
0.75294 0.76471 0.6902
0.73725 0.75294 0.68235
0.76863 0.78824 0.67451
0.80392 0.82353 0.71765
0.77647 0.79608 0.70196
0 0 0
0.82745 0.84706 0.72941
0.81176 0.83137 0.72941
1 1 0.9451
1 1 0.94902
1 1 0.98824
1 1 1
1 1 1
1 1 1
0.76078 0.78431 0.6902
0.84314 0.85882 0.74902
0.83922 0.8549 0.73333
1 1 0.96863
1 1 1
0.81961 0.83529 0.72941
0.85882 0.87059 0.74902
1 1 1
1 1 0.96078
1 1 0.9451
1 1 0.97255
1 1 1
1 1 1
1 1 1
0.83137 0.84706 0.78039
0.73725 0.74902 0.66667
0.69412 0.72157 0.65882
0.7098 0.72941 0.67059
0.68235 0.71373 0.6549
0.70196 0.72549 0.67451
0.68235 0.71765 0.65098
0.67843 0.71373 0.64706
0.6549 0.69804 0.63137
0.72157 0.7451 0.6902
0.7098 0.72941 0.66275
0.70196 0.72549 0.67059
0.67451 0.7098 0.64314
0.71373 0.73725 0.68235
0.67451 0.70588 0.6549
0.7451 0.77255 0.70196
0.69804 0.72549 0.65882
0.71373 0.74118 0.67843
0.74118 0.75294 0.67843
0.87451 0.88627 0.77255
0.68627 0.70196 0.64706
0.68235 0.7098 0.64706
0.68235 0.71373 0.63137
0.72549 0.74118 0.67451
0.69412 0.72157 0.65882
0.69412 0.72157 0.65098
0.68627 0.7098 0.65098
0.67843 0.7098 0.65098
0.61961 0.65098 0.60784
0.70588 0.73333 0.66667
0.70196 0.72941 0.66667
0.69412 0.72549 0.65882
0.68627 0.71373 0.6549
0.67843 0.70588 0.64314
0.64706 0.69412 0.60784
0.7451 0.75294 0.70196
0.71373 0.73725 0.66667
0.70588 0.73333 0.67059
0.70196 0.72941 0.67451
0.69412 0.72157 0.66667
0.68627 0.72157 0.6549
0.67843 0.7098 0.65098
0.67451 0.7098 0.64314
0.41176 0.43529 0.4
0.7098 0.74118 0.68235
0.71765 0.7451 0.6902
0.71765 0.74118 0.6902
0.7098 0.73333 0.67843
0.70196 0.72549 0.67059
0.69412 0.72549 0.65882
0.67451 0.70588 0.64314
0.72941 0.75686 0.69412
0.72941 0.74902 0.67059
0.71373 0.74902 0.67451
0.70588 0.72941 0.67059
0.69804 0.72549 0.66275
0.68235 0.71373 0.6549
0.67059 0.70196 0.64314
0.74902 0.76078 0.68627
0.73333 0.75686 0.69412
0.7098 0.73725 0.67451
0.7098 0.74118 0.67059
0.69412 0.72549 0.6549
0.67059 0.70588 0.64314
0.75294 0.76863 0.70196
0.7451 0.77255 0.7098
0.72549 0.75294 0.68627
0.71765 0.74902 0.68627
0.6902 0.72157 0.65882
0.67451 0.70588 0.64706
0.65882 0.70196 0.63529
0.72157 0.75294 0.69412
0.7098 0.7451 0.67843
0.7098 0.7451 0.67843
0.70196 0.72549 0.67843
0.67451 0.70588 0.64706
0.71373 0.73725 0.68235
0.68235 0.69804 0.64706
0.72549 0.73725 0.67059
0.70588 0.72549 0.63922
0.6902 0.72157 0.63922
0.19216 0.21961 0.18824
0.67843 0.70588 0.64314
0.67843 0.70196 0.63922
0.72549 0.75294 0.6902
0.72549 0.75294 0.68235
0.32157 0.34902 0.3098
0.69412 0.72157 0.6549
0.6902 0.71765 0.64706
0.67843 0.70588 0.64314
0.67843 0.7098 0.64314
0.67059 0.70588 0.63922
0.65098 0.68627 0.61961
0.65882 0.68235 0.63137
0.78824 0.8 0.71765
0.65098 0.67059 0.6
0.45098 0.46275 0.43529
0.59608 0.61961 0.56863
0.70588 0.72549 0.66275
0.70196 0.72941 0.66667
0.69804 0.72549 0.66275
0.68235 0.71373 0.64706
0.68235 0.7098 0.65098
0.66667 0.69804 0.63922
0.66275 0.69412 0.63137
0.66667 0.67843 0.63137
0.31373 0.33725 0.30196
0.7098 0.73333 0.66667
0.7098 0.73725 0.67059
0.70196 0.72549 0.66667
0.69804 0.72549 0.66667
0.6902 0.72157 0.6549
0.68235 0.71373 0.65098
0.67059 0.70196 0.64314
0.6549 0.70196 0.62745
0.77255 0.78824 0.72157
0.75686 0.76863 0.69412
0.34902 0.34902 0.34902
0.38431 0.41176 0.36863
0.71765 0.7451 0.67451
0.72157 0.7451 0.6902
0.71373 0.73725 0.68235
0.70588 0.72941 0.66275
0.69412 0.72549 0.66275
0.68235 0.72157 0.65098
0.67451 0.7098 0.64314
0.66667 0.70588 0.63922
0.53725 0.54902 0.4902
0.20392 0.23922 0.18039
0.72941 0.75686 0.68627
0.72549 0.74902 0.6902
0.71765 0.7451 0.6902
0.7098 0.73725 0.67059
0.70196 0.72157 0.67059
0.6902 0.72157 0.65098
0.68235 0.71765 0.65098
0.67059 0.70196 0.63922
0.54902 0.55686 0.51765
0.7451 0.76471 0.69412
0.73725 0.76078 0.69412
0.72157 0.74902 0.68235
0.71765 0.74118 0.68627
0.70196 0.73333 0.67059
0.6902 0.72157 0.6549
0.67843 0.71373 0.65098
0.66667 0.70196 0.64314
0.78824 0.8 0.77255
0.21569 0.23529 0.21961
0.76863 0.78431 0.72549
0.76471 0.79216 0.72941
0.7451 0.76863 0.70588
0.73333 0.75294 0.69804
0.71765 0.7451 0.68235
0.7098 0.74118 0.67843
0.69412 0.72941 0.66667
0.68235 0.71373 0.65098
0.67451 0.7098 0.64706
0.76471 0.78824 0.73333
0.74902 0.77647 0.71373
0.74902 0.77647 0.70588
0.73725 0.76078 0.70588
0.72549 0.75294 0.69804
0.71373 0.73725 0.68627
0.69804 0.72549 0.67059
0.6902 0.72549 0.65882
0.75686 0.77647 0.71373
0.73725 0.76471 0.7098
0.71373 0.74902 0.67451
0.71765 0.74902 0.6902
0.68235 0.71765 0.6549
0.7451 0.77255 0.7098
0.70588 0.74118 0.66667
0.72157 0.73725 0.63922
0.69804 0.72157 0.65882
0.70196 0.71765 0.65098
0.67843 0.69412 0.63137
0.61961 0.64706 0.58824
0.67843 0.70588 0.63137
0.72157 0.73333 0.66667
0.71373 0.73725 0.65882
0.70196 0.72941 0.6549
0.68627 0.7098 0.63529
0.26667 0.28235 0.24314
0.58039 0.61569 0.5451
0.68235 0.70588 0.64314
0.67843 0.70196 0.63922
0.77647 0.79608 0.7098
0.74902 0.76078 0.67843
0.74118 0.76078 0.67843
0.72549 0.7451 0.67059
0.72157 0.74118 0.66667
0.6902 0.70588 0.63922
0.27843 0.29804 0.27059
0.65882 0.68627 0.62353
0.6902 0.71765 0.65098
0.68235 0.7098 0.64706
0.68235 0.70588 0.64706
0.67451 0.70588 0.63922
0.65882 0.69412 0.62353
0.6549 0.6902 0.62353
0.64706 0.68235 0.61569
0.77647 0.78824 0.71373
0.74118 0.76078 0.68235
0.72549 0.74902 0.67451
0.50196 0.51765 0.47451
0.36471 0.38824 0.36078
0.70588 0.72941 0.66275
0.70196 0.72549 0.66667
0.69804 0.71765 0.65882
0.6902 0.71765 0.6549
0.68235 0.71373 0.64314
0.67451 0.70588 0.64706
0.66667 0.69804 0.63922
0.65882 0.69412 0.62745
0.79216 0.80392 0.72157
0.77647 0.79608 0.70588
0.76863 0.78431 0.70196
0.74902 0.76078 0.70196
0.73725 0.75294 0.68627
0.42745 0.43922 0.4
0.49804 0.52549 0.47451
0.7098 0.73725 0.67059
0.7098 0.73333 0.66667
0.70588 0.73333 0.67059
0.6902 0.71765 0.6549
0.68627 0.71373 0.6549
0.67843 0.7098 0.64706
0.67059 0.70196 0.64314
0.6549 0.69412 0.63529
0.80392 0.81569 0.74902
0.76471 0.78039 0.70588
0.76078 0.77647 0.70196
0.7451 0.76078 0.69804
0.41569 0.41961 0.40392
0.68235 0.71373 0.64706
0.72157 0.74118 0.67843
0.71373 0.73725 0.67843
0.70588 0.72941 0.67451
0.70196 0.72549 0.66667
0.68627 0.72549 0.64706
0.67843 0.71373 0.64706
0.67451 0.70588 0.64314
0.6549 0.69804 0.63137
0.78824 0.8 0.73333
0.77255 0.78824 0.72549
0.72549 0.74118 0.67451
0.36471 0.38039 0.34902
0.72941 0.75686 0.68235
0.72549 0.74902 0.6902
0.72549 0.7451 0.6902
0.71373 0.7451 0.67843
0.70588 0.72941 0.67059
0.69804 0.72157 0.66667
0.68627 0.71765 0.6549
0.67843 0.71765 0.64706
0.78824 0.80392 0.73725
0.52941 0.53725 0.48627
0.44706 0.47451 0.42745
0.7451 0.76471 0.68235
0.7451 0.76078 0.69804
0.72941 0.75294 0.68627
0.71765 0.74902 0.67843
0.7098 0.74118 0.67059
0.70196 0.72941 0.66275
0.68235 0.71765 0.65098
0.67451 0.70588 0.63922
0.66667 0.70196 0.63922
0.78824 0.79608 0.72941
0.27059 0.27059 0.26667
0.74902 0.77647 0.70588
0.75686 0.77647 0.71765
0.74902 0.77255 0.70588
0.73725 0.75686 0.70196
0.73333 0.75686 0.69412
0.71373 0.74118 0.68235
0.70588 0.73333 0.67451
0.69412 0.72941 0.6549
0.68235 0.71373 0.65098
0.67059 0.70588 0.64314
0 0 0
0.24314 0.24706 0.24706
0.76471 0.78824 0.72157
0.75294 0.77255 0.71373
0.7451 0.76863 0.70196
0.72941 0.75686 0.6902
0.71765 0.74902 0.68235
0.70196 0.73333 0.67451
0.69804 0.72549 0.66667
0.68235 0.71373 0.6549
0.67059 0.70196 0.64314
0 0 0
0.23922 0.23922 0.27059
0.78039 0.8 0.72941
0.76863 0.78824 0.71765
0.75686 0.78431 0.71765
0.74902 0.76863 0.71373
0.72941 0.75686 0.70196
0.72157 0.74902 0.69412
0.7098 0.74118 0.6902
0.69412 0.72549 0.66667
0.67843 0.70196 0.65098
0 0 0
0 0 0
0.77255 0.80784 0.72549
0.73725 0.76471 0.69804
0.72157 0.75294 0.68627
0.70588 0.73333 0.67843
0.71765 0.74902 0.68627
0.70196 0.73725 0.66275
0.69804 0.72941 0.67059
0.71765 0.74902 0.68235
0.74118 0.76078 0.67059
0.71765 0.72941 0.6549
0.6902 0.71765 0.65098
0.68627 0.70196 0.64706
0.68627 0.69412 0.65098
0.81176 0.82745 0.72157
0.74118 0.76078 0.67451
0.72941 0.74902 0.66667
0.71373 0.73725 0.65098
0.70588 0.72157 0.6549
0.69804 0.72157 0.64706
0.69412 0.71373 0.63529
0.68235 0.69804 0.63922
0.18431 0.19608 0.18824
0.60392 0.63529 0.56078
0.67451 0.70196 0.64706
0.7451 0.76471 0.67059
0.72941 0.7451 0.6549
0.71765 0.73333 0.6549
0.7098 0.72941 0.64706
0.69804 0.72157 0.64706
0.56078 0.57255 0.51373
0.34902 0.37647 0.33725